============================== echo of input deck ==============================
echo
start Lih

geometry units angstroms
symmetry C1
 Li 0 0   0.000
 H  0 0   1.600
end

basis
 * library sto-3g
end

scf
  singlet
  rhf
  thresh 1e-10
end

tce
  2eorb
  2emet 13
  ccsd
  nroots 2
end

set tce:print_integrals T
set tce:qorb 6
set tce:qela 2
set tce:qelb 2

task tce energy
================================================================================

 Output coordinates in angstroms (scale by  1.889725989 to convert to a.u.)

  No.       Tag          Charge          X              Y              Z
 ---- ---------------- ---------- -------------- -------------- --------------
    1 Li                   3.0000     0.00000000     0.00000000    -0.40000000
    2 H                    1.0000     0.00000000     0.00000000     1.20000000

         Total SCF energy =     -7.861864773565

 Vector    2  Occ=2.000000D+00  E=-2.852708D-01

 Vector    3  Occ=0.000000D+00  E= 7.821656D-02

 Vector    4  Occ=0.000000D+00  E= 1.639413D-01

 Vector    5  Occ=0.000000D+00  E= 1.639413D-01

 Vector    6  Occ=0.000000D+00  E= 5.477084D-01

       Multipole analysis of the density wrt the origin
       ------------------------------------------------

     L   x y z        total         open         nuclear
     -   - - -        -----         ----         -------
     0   0 0 0     -0.000000      0.000000      4.000000

     1   1 0 0     -0.000000      0.000000      0.000000
     1   0 1 0      0.000000      0.000000      0.000000
     1   0 0 1     -1.911580      0.000000      0.000000

     2   2 0 0     -3.926095      0.000000      0.000000
     2   1 1 0      0.000000      0.000000      0.000000
     2   1 0 1     -0.000000      0.000000      0.000000
     2   0 2 0     -3.926095      0.000000      0.000000
     2   0 1 1      0.000000      0.000000      0.000000

 CCSD total energy / hartree       =        -7.882313807717264
 Total times  cpu:       45.8s     wall:       24.4s
